 Gaussian 16, Revision C.01,
 Gaussian 16:  ES64L-G16RevC.01  3-Jul-2019

 --------------------------------------------------------------------
 #p opt B3LYP/6-31+g(d) pop=npa empiricaldispersion=gd3 Freq fchk=all
 --------------------------------------------------------------------

 -----
 2M131
 -----
 Symbolic Z-matrix:
 Charge =  0 Multiplicity = 1

 SCF Done:  E(RB3LYP) =  -836.238250152     A.U. after   17 cycles
 SCF Done:  E(RB3LYP) =  -836.284796955     A.U. after   16 cycles
 SCF Done:  E(RB3LYP) =  -836.313105207     A.U. after   15 cycles
 SCF Done:  E(RB3LYP) =  -836.319698102     A.U. after   15 cycles
 SCF Done:  E(RB3LYP) =  -836.321234428     A.U. after   13 cycles
 SCF Done:  E(RB3LYP) =  -836.321563150     A.U. after   13 cycles
 SCF Done:  E(RB3LYP) =  -836.321558561     A.U. after   11 cycles
 SCF Done:  E(RB3LYP) =  -836.321564315     A.U. after   10 cycles
 Optimization completed.
    -- Stationary point found.
 Normal termination of Gaussian 16 at Fri Jun  4 13:06:43 2021.

 ---------------------------------------------------------------------
 #P Geom=AllCheck Guess=TCheck SCRF=Check GenChk RB3LYP/6-31+G(d) Freq
 ---------------------------------------------------------------------

 Structure from the checkpoint file:  "2M131.com.chk"
 -----
 2M131
 -----
 Charge =  0 Multiplicity = 1

                         Standard orientation:
 ---------------------------------------------------------------------
 Center     Atomic      Atomic             Coordinates (Angstroms)
 Number     Number       Type             X           Y           Z
 ---------------------------------------------------------------------
      1          6           0        2.366363    2.353983   -0.000007
      2          6           0        3.049099    1.116293   -0.000010
      3          6           0        2.353356   -0.071337   -0.000011
      4          6           0        0.906139   -0.109576   -0.000006
      5          6           0        0.234389    1.177024   -0.000001
      6          6           0        0.995555    2.383325   -0.000002
      7          6           0        0.110917   -1.266509   -0.000009
      8          6           0       -1.290349   -1.214317   -0.000006
      9          6           0       -1.972476    0.051536    0.000000
     10          6           0       -1.182957    1.223612    0.000003
     11          6           0       -2.066202   -2.415996   -0.000010
     12          6           0       -3.436752   -2.364883   -0.000007
     13          6           0       -4.108194   -1.107110   -0.000000
     14          6           0       -3.400191    0.069359    0.000004
     15          6           0       -1.838282    2.495968    0.000009
     16          7           0       -2.379142    3.527407    0.000014
     17          7           0        3.193693   -1.290437   -0.000014
     18          8           0        2.647254   -2.397181    0.000047
     19          8           0        4.418434   -1.145638   -0.000001
     20          1           0        2.937713    3.276955   -0.000008
     21          1           0        4.131450    1.090577   -0.000013
     22          1           0        0.471148    3.334063    0.000003
     23          1           0        0.586060   -2.235334   -0.000012
     24          1           0       -1.544657   -3.369687   -0.000015
     25          1           0       -4.018500   -3.282426   -0.000010
     26          1           0       -5.194471   -1.082241    0.000001
     27          1           0       -3.918603    1.023620    0.000009
 ---------------------------------------------------------------------

 SCF Done:  E(RB3LYP) =  -836.321564315     A.U. after    1 cycles

 The electronic state is 1-A.
 Alpha  occ. eigenvalues --  -19.20460 -19.20251 -14.59351 -14.36134 -10.28181
 Alpha  occ. eigenvalues --  -10.26294 -10.25699 -10.25653 -10.25253 -10.24739
 Alpha  occ. eigenvalues --  -10.24448 -10.24141 -10.24005 -10.23749 -10.23156
 Alpha  occ. eigenvalues --  -10.22809 -10.22662 -10.22585 -10.22487  -1.24451
 Alpha  occ. eigenvalues --   -1.07025  -0.93928  -0.92114  -0.89775  -0.85465
 Alpha  occ. eigenvalues --   -0.83687  -0.81302  -0.78370  -0.76399  -0.72190
 Alpha  occ. eigenvalues --   -0.68918  -0.66276  -0.65464  -0.61674  -0.59431
 Alpha  occ. eigenvalues --   -0.57587  -0.56182  -0.55012  -0.53273  -0.53040
 Alpha  occ. eigenvalues --   -0.51156  -0.50273  -0.49926  -0.48618  -0.46108
 Alpha  occ. eigenvalues --   -0.45181  -0.44889  -0.43444  -0.41956  -0.40755
 Alpha  occ. eigenvalues --   -0.40289  -0.38719  -0.38681  -0.38296  -0.37204
 Alpha  occ. eigenvalues --   -0.35354  -0.34413  -0.32948  -0.32811  -0.32616
 Alpha  occ. eigenvalues --   -0.30805  -0.29914  -0.28386  -0.23949
 Alpha virt. eigenvalues --   -0.13115  -0.09157  -0.05882  -0.03241  -0.02351
 Alpha virt. eigenvalues --   -0.00520  -0.00079   0.00426   0.01278   0.01465
 Alpha virt. eigenvalues --    0.01535   0.02608   0.03688   0.04092   0.04543

 Mulliken charges:
               1
     1  C   -0.772137
     2  C   -0.845947
     3  C   -0.050846
     4  C    0.629465
     5  C    0.964626
     6  C   -0.661700
     7  C    0.172616
     8  C    0.496697
     9  C    0.883836
    10  C    0.197303
    11  C    0.036618
    12  C   -0.379261
    13  C   -0.703528
    14  C   -0.361262
    15  C   -0.475944
    16  N   -0.520735
    17  N   -0.318149
    18  O   -0.027205
    19  O    0.007933
    20  H    0.203671
    21  H    0.241499
    22  H    0.226588
    23  H    0.253519
    24  H    0.198488
    25  H    0.192673
    26  H    0.193836
    27  H    0.217345
 Sum of Mulliken charges =  -0.00000

 Dipole moment (field-independent basis, Debye):
    X=             -1.6966    Y=             -0.4958    Z=             -0.0001  Tot=              1.7676
 Quadrupole moment (field-independent basis, Debye-Ang):
   XX=           -111.9659   YY=           -116.1760   ZZ=           -111.3774
   XY=             28.2251   XZ=             -0.0002   YZ=              0.0002

  Exact polarizability:     313.690      16.215     249.753      -0.000       0.000      89.818
 Approx polarizability:     536.108      26.562     472.648      -0.001      -0.000     140.991

 Summary of Natural Population Analysis:

                                       Natural Population
                Natural  -----------------------------------------------
    Atom  No    Charge         Core      Valence    Rydberg      Total
 -----------------------------------------------------------------------
      C    1   -0.23409      1.99913     4.21913    0.01582     6.23409
      C    2   -0.19089      1.99908     4.17502    0.01679     6.19089
      C    3    0.09846      1.99855     3.88212    0.02087     5.90154
      C    4   -0.08941      1.99906     4.07394    0.01642     6.08941
      C    5   -0.00865      1.99877     3.99349    0.01639     6.00865
      C    6   -0.17137      1.99910     4.15828    0.01400     6.17137
      C    7   -0.12983      1.99883     4.11553    0.01547     6.12983
      C    8   -0.07028      1.99909     4.05441    0.01678     6.07028
      C    9   -0.00385      1.99875     3.98813    0.01697     6.00385
      C   10   -0.11815      1.99848     4.10278    0.01689     6.11815
      C   11   -0.19639      1.99908     4.18269    0.01462     6.19639
      C   12   -0.23058      1.99912     4.21557    0.01588     6.23058
      C   13   -0.21258      1.99914     4.19789    0.01555     6.21258
      C   14   -0.22009      1.99910     4.20704    0.01395     6.22009
      C   15    0.26602      1.99942     3.69912    0.03544     5.73398
      N   16   -0.30512      1.99965     5.28307    0.02240     7.30512
      N   17    0.49098      1.99956     4.45598    0.05347     6.50902
      O   18   -0.39043      1.99982     6.37134    0.01927     8.39043
      O   19   -0.38443      1.99983     6.36711    0.01750     8.38443
      H   20    0.25927      0.00000     0.73999    0.00074     0.74073
      H   21    0.28443      0.00000     0.71419    0.00138     0.71557
      H   22    0.26483      0.00000     0.73388    0.00129     0.73517
      H   23    0.27755      0.00000     0.72076    0.00169     0.72245
      H   24    0.25055      0.00000     0.74846    0.00100     0.74945
      H   25    0.25164      0.00000     0.74761    0.00075     0.74836
      H   26    0.25222      0.00000     0.74703    0.00075     0.74778
      H   27    0.26022      0.00000     0.73854    0.00124     0.73978
 =======================================================================
   * Total *    0.00005     37.98353    89.63309    0.38333   127.99995

 ******    1 imaginary frequencies (negative Signs) ******

                      1                      2                      3
                      A                      A                      A
 Frequencies --    -49.3320                51.5075                81.7396
 Red. masses --     14.9340                 7.7726                 4.6679
 Frc consts  --      0.0214                 0.0121                 0.0184
 IR Inten    --      0.0205                 6.7287                 1.2478

                      4                      5                      6
                      A                      A                      A
 Frequencies --    112.6849               132.7770               171.9854
 Red. masses --      5.7221                11.7842                 7.4894
 Frc consts  --      0.0428                 0.1224                 0.1305
 IR Inten    --      0.2115                 6.6352                 3.4859

                      7                      8                      9
                      A                      A                      A
 Frequencies --    173.4512               245.8959               274.2364
 Red. masses --      4.4666                 5.0692                 4.4906
 Frc consts  --      0.0792                 0.1806                 0.1990
 IR Inten    --      0.1342                 0.0747                 0.3361

                     10                     11                     12
                      A                      A                      A
 Frequencies --    280.6759               357.1837               378.5543
 Red. masses --      8.9353                 9.4161                 4.9427
 Frc consts  --      0.4147                 0.7078                 0.4173
 IR Inten    --      1.5679                 0.1032                 1.6987

                     13                     14                     15
                      A                      A                      A
 Frequencies --    380.5207               416.3713               455.6244
 Red. masses --      6.9476                 6.8826                 9.2440
 Frc consts  --      0.5927                 0.7030                 1.1306
 IR Inten    --      1.2389                 0.9488                 1.1816

                     16                     17                     18
                      A                      A                      A
 Frequencies --    461.1480               490.2648               498.3414
 Red. masses --      3.7515                 9.2795                 3.4750
 Frc consts  --      0.4700                 1.3141                 0.5085
 IR Inten    --     12.2678                 2.0515                 0.2162

                     19                     20                     21
                      A                      A                      A
 Frequencies --    516.4988               557.7971               559.5306
 Red. masses --      4.7458                 7.7425                 3.2068
 Frc consts  --      0.7459                 1.4193                 0.5915
 IR Inten    --      0.5633                 2.7944                 3.1678

                     22                     23                     24
                      A                      A                      A
 Frequencies --    626.3470               635.5283               644.1558
 Red. masses --      6.8637                 5.7700                 6.7038
 Frc consts  --      1.5865                 1.3731                 1.6389
 IR Inten    --      4.1096                 5.2801                 3.7198

                     25                     26                     27
                      A                      A                      A
 Frequencies --    680.8832               733.9886               741.4062
 Red. masses --      6.3756                 3.2578                 3.5554
 Frc consts  --      1.7415                 1.0341                 1.1515
 IR Inten    --      3.6940                10.6113                38.9881

                     28                     29                     30
                      A                      A                      A
 Frequencies --    742.9101               765.7911               783.0383
 Red. masses --      8.5594                 1.9293                 2.0579
 Frc consts  --      2.7833                 0.6666                 0.7434
 IR Inten    --      8.7604                16.5349                11.7765

                     31                     32                     33
                      A                      A                      A
 Frequencies --    835.0751               853.5818               864.6801
 Red. masses --      2.0025                 8.2371                 5.6974
 Frc consts  --      0.8227                 3.5360                 2.5098
 IR Inten    --     28.2865                15.6318                 2.6311

                     34                     35                     36
                      A                      A                      A
 Frequencies --    875.9123               911.2598               944.6952
 Red. masses --      1.4736                 6.3627                 1.4597
 Frc consts  --      0.6661                 3.1130                 0.7675
 IR Inten    --      3.2250                17.6405                20.1421

                     37                     38                     39
                      A                      A                      A
 Frequencies --    964.7780               967.3185               985.1095
 Red. masses --      7.4637                 1.3995                 1.3708
 Frc consts  --      4.0932                 0.7716                 0.7838
 IR Inten    --     10.3153                 0.1242                 4.5769

                     40                     41                     42
                      A                      A                      A
 Frequencies --   1008.7429              1010.0886              1046.7786
 Red. masses --      1.3152                 1.3466                 2.2888
 Frc consts  --      0.7885                 0.8095                 1.4776
 IR Inten    --      0.0403                 1.0550                 2.3565

                     43                     44                     45
                      A                      A                      A
 Frequencies --   1071.3298              1119.0085              1145.4630
 Red. masses --      6.5622                 2.1599                 2.7917
 Frc consts  --      4.4376                 1.5935                 2.1581
 IR Inten    --     19.7281                 1.8481                17.2939

                     46                     47                     48
                      A                      A                      A
 Frequencies --   1196.7485              1209.6214              1218.0456
 Red. masses --      1.3105                 1.3002                 1.1763
 Frc consts  --      1.1058                 1.1209                 1.0283
 IR Inten    --     12.3008                11.7154                 1.5524

                     49                     50                     51
                      A                      A                      A
 Frequencies --   1265.1296              1289.9938              1303.4771
 Red. masses --      2.0219                 2.0680                 2.2266
 Frc consts  --      1.9066                 2.0275                 2.2289
 IR Inten    --     21.7043                 8.1251                13.3168

                     52                     53                     54
                      A                      A                      A
 Frequencies --   1347.3550              1365.5428              1373.9626
 Red. masses --      9.7793                 5.5908                 3.0336
 Frc consts  --     10.4597                 6.1424                 3.3741
 IR Inten    --    437.8659                28.9212                53.5134

                     55                     56                     57
                      A                      A                      A
 Frequencies --   1408.0372              1416.8432              1448.3829
 Red. masses --      2.7242                 2.5076                 6.0290
 Frc consts  --      3.1821                 2.9659                 7.4518
 IR Inten    --      2.3775                20.7192                21.7238

                     58                     59                     60
                      A                      A                      A
 Frequencies --   1469.0195              1491.1355              1524.9130
 Red. masses --      2.6243                 2.3426                 2.4983
 Frc consts  --      3.3367                 3.0689                 3.4228
 IR Inten    --      2.3376                 2.6903                 8.1126

                     61                     62                     63
                      A                      A                      A
 Frequencies --   1572.8966              1586.8532              1600.3703
 Red. masses --      5.6910                 9.2536                 7.1766
 Frc consts  --      8.2954                13.7289                10.8295
 IR Inten    --     65.0599               132.3396                15.5198

                     64                     65                     66
                      A                      A                      A
 Frequencies --   1615.1231              1664.6945              1676.5588
 Red. masses --      5.4452                 5.6897                 5.6560
 Frc consts  --      8.3691                 9.2898                 9.3669
 IR Inten    --     30.8528                11.4259                15.6300

                     67                     68                     69
                      A                      A                      A
 Frequencies --   2321.1953              3186.8824              3195.3534
 Red. masses --     12.6865                 1.0867                 1.0892
 Frc consts  --     40.2732                 6.5026                 6.5523
 IR Inten    --     52.9532                 0.0821                 5.9977

                     70                     71                     72
                      A                      A                      A
 Frequencies --   3204.7371              3207.2286              3215.2528
 Red. masses --      1.0880                 1.0940                 1.0973
 Frc consts  --      6.5836                 6.6299                 6.6833
 IR Inten    --      1.8465                11.4895                17.9185

                     73                     74                     75
                      A                      A                      A
 Frequencies --   3219.9400              3251.3275              3284.0052
 Red. masses --      1.0956                 1.0921                 1.0900
 Frc consts  --      6.6926                 6.8020                 6.9261
 IR Inten    --      6.0667                 3.7005                12.2136

 - Thermochemistry -
 -------------------
 Temperature   298.150 Kelvin.  Pressure   1.00000 Atm.
 Atom     1 has atomic number  6 and mass  12.00000

 Molecular mass:   248.05858 amu.
 Principal axes and moments of inertia in atomic units:
                           1         2         3
     Eigenvalues --  2892.365985933.240168825.60614
           X            0.99919   0.04013  -0.00000
           Y           -0.04013   0.99919   0.00000
           Z            0.00000  -0.00000   1.00000
 This molecule is an asymmetric top.
 Rotational symmetry number  1.
 Warning -- assumption of classical behavior for rotation
           may cause significant error
 Rotational temperatures (Kelvin)      0.02995     0.01460     0.00981
 Rotational constants (GHZ):           0.62397     0.30417     0.20449
    1 imaginary frequencies ignored.
 Zero-point vibrational energy     512511.8 (Joules/Mol)
                                  122.49326 (Kcal/Mol)
 Warning -- explicit consideration of  20 degrees of freedom as
           vibrations may cause significant error
 Vibrational temperatures:     74.11   117.61   162.13   191.04   247.45
          (Kelvin)            249.56   353.79   394.56   403.83   513.91
                              544.66   547.48   599.07   655.54   663.49
                              705.38   717.00   743.13   802.55   805.04
                              901.17   914.38   926.80   979.64  1056.05
                             1066.72  1068.88  1101.80  1126.62  1201.49
                             1228.11  1244.08  1260.24  1311.10  1359.21
                             1388.10  1391.76  1417.35  1451.36  1453.29
                             1506.08  1541.40  1610.00  1648.07  1721.85
                             1740.38  1752.50  1820.24  1856.01  1875.41
                             1938.54  1964.71  1976.83  2025.85  2038.52
                             2083.90  2113.59  2145.41  2194.01  2263.05
                             2283.13  2302.58  2323.80  2395.12  2412.19
                             3339.68  4585.21  4597.40  4610.90  4614.49
                             4626.03  4632.78  4677.94  4724.95

 Zero-point correction=                           0.195205 (Hartree/Particle)
 Thermal correction to Energy=                    0.208305
 Thermal correction to Enthalpy=                  0.209249
 Thermal correction to Gibbs Free Energy=         0.155222
 Sum of electronic and zero-point Energies=           -836.126359
 Sum of electronic and thermal Energies=              -836.113260
 Sum of electronic and thermal Enthalpies=            -836.112315
 Sum of electronic and thermal Free Energies=         -836.166342

                     E (Thermal)             CV                S
                      KCal/Mol        Cal/Mol-Kelvin    Cal/Mol-Kelvin
 Total                  130.713             53.315            113.709
 Electronic               0.000              0.000              0.000
 Translational            0.889              2.981             42.426
 Rotational               0.889              2.981             33.382
 Vibrational            128.936             47.354             37.901
 Vibration     1          0.596              1.977              4.759
 Vibration     2          0.600              1.962              3.849
 Vibration     3          0.607              1.939              3.222
 Vibration     4          0.613              1.921              2.905
 Vibration     5          0.626              1.877              2.414
 Vibration     6          0.627              1.875              2.398
 Vibration     7          0.660              1.770              1.760
 Vibration     8          0.677              1.721              1.569
 Vibration     9          0.680              1.709              1.530
 Vibration    10          0.732              1.560              1.134
 Vibration    11          0.749              1.516              1.045
 Vibration    12          0.750              1.512              1.037
 Vibration    13          0.780              1.435              0.904
 Vibration    14          0.814              1.348              0.779
 Vibration    15          0.819              1.336              0.763
 Vibration    16          0.846              1.272              0.683
 Vibration    17          0.854              1.254              0.662
 Vibration    18          0.872              1.213              0.618
 Vibration    19          0.913              1.123              0.528
 Vibration    20          0.915              1.119              0.525

                           ! Non-Optimized Parameters !
 Normal termination of Gaussian 16 at Fri Jun  4 13:17:01 2021.
